ITEM: TIMESTEP
0
ITEM: NUMBER OF ATOMS
350
ITEM: BOX BOUNDS pp pp ff
0 7.93701
0 7.93701
0 15.874
ITEM: ATOMS id type xs ys zs
1 1 0 0 0
2 1 0.1 0.1 0
3 1 0.1 0 0.05
4 1 0 0.1 0.05
5 1 0.2 0 0
6 1 0.3 0.1 0
7 1 0.3 0 0.05
8 1 0.2 0.1 0.05
9 1 0.4 0 0
12 1 0.4 0.1 0.05
21 1 0 0.2 0
22 1 0.1 0.3 0
23 1 0.1 0.2 0.05
24 1 0 0.3 0.05
25 1 0.2 0.2 0
26 1 0.3 0.3 0
27 1 0.3 0.2 0.05
28 1 0.2 0.3 0.05
29 1 0.4 0.2 0
32 1 0.4 0.3 0.05
41 1 0 0.4 0
43 1 0.1 0.4 0.05
45 1 0.2 0.4 0
47 1 0.3 0.4 0.05
49 1 0.4 0.4 0
101 1 0 0 0.1
102 1 0.1 0.1 0.1
103 1 0.1 0 0.15
104 1 0 0.1 0.15
105 1 0.2 0 0.1
106 1 0.3 0.1 0.1
107 1 0.3 0 0.15
108 1 0.2 0.1 0.15
109 1 0.4 0 0.1
112 1 0.4 0.1 0.15
121 1 0 0.2 0.1
122 1 0.1 0.3 0.1
123 1 0.1 0.2 0.15
124 1 0 0.3 0.15
125 1 0.2 0.2 0.1
126 1 0.3 0.3 0.1
127 1 0.3 0.2 0.15
128 1 0.2 0.3 0.15
129 1 0.4 0.2 0.1
132 1 0.4 0.3 0.15
141 1 0 0.4 0.1
143 1 0.1 0.4 0.15
145 1 0.2 0.4 0.1
147 1 0.3 0.4 0.15
149 1 0.4 0.4 0.1
10 1 0.5 0.1 0
11 1 0.5 0 0.05
13 1 0.6 0 0
14 1 0.7 0.1 0
15 1 0.7 0 0.05
16 1 0.6 0.1 0.05
17 1 0.8 0 0
18 1 0.9 0.1 0
19 1 0.9 0 0.05
20 1 0.8 0.1 0.05
30 1 0.5 0.3 0
31 1 0.5 0.2 0.05
33 1 0.6 0.2 0
34 1 0.7 0.3 0
35 1 0.7 0.2 0.05
36 1 0.6 0.3 0.05
37 1 0.8 0.2 0
38 1 0.9 0.3 0
39 1 0.9 0.2 0.05
40 1 0.8 0.3 0.05
51 1 0.5 0.4 0.05
53 1 0.6 0.4 0
55 1 0.7 0.4 0.05
57 1 0.8 0.4 0
59 1 0.9 0.4 0.05
110 1 0.5 0.1 0.1
111 1 0.5 0 0.15
113 1 0.6 0 0.1
114 1 0.7 0.1 0.1
115 1 0.7 0 0.15
116 1 0.6 0.1 0.15
117 1 0.8 0 0.1
118 1 0.9 0.1 0.1
119 1 0.9 0 0.15
120 1 0.8 0.1 0.15
130 1 0.5 0.3 0.1
131 1 0.5 0.2 0.15
133 1 0.6 0.2 0.1
134 1 0.7 0.3 0.1
135 1 0.7 0.2 0.15
136 1 0.6 0.3 0.15
137 1 0.8 0.2 0.1
138 1 0.9 0.3 0.1
139 1 0.9 0.2 0.15
140 1 0.8 0.3 0.15
151 1 0.5 0.4 0.15
153 1 0.6 0.4 0.1
155 1 0.7 0.4 0.15
157 1 0.8 0.4 0.1
159 1 0.9 0.4 0.15
42 1 0.1 0.5 0
44 1 0 0.5 0.05
46 1 0.3 0.5 0
48 1 0.2 0.5 0.05
52 1 0.4 0.5 0.05
61 1 0 0.6 0
62 1 0.1 0.7 0
63 1 0.1 0.6 0.05
64 1 0 0.7 0.05
65 1 0.2 0.6 0
66 1 0.3 0.7 0
67 1 0.3 0.6 0.05
68 1 0.2 0.7 0.05
69 1 0.4 0.6 0
72 1 0.4 0.7 0.05
81 1 0 0.8 0
82 1 0.1 0.9 0
83 1 0.1 0.8 0.05
84 1 0 0.9 0.05
85 1 0.2 0.8 0
86 1 0.3 0.9 0
87 1 0.3 0.8 0.05
88 1 0.2 0.9 0.05
89 1 0.4 0.8 0
92 1 0.4 0.9 0.05
142 1 0.1 0.5 0.1
144 1 0 0.5 0.15
146 1 0.3 0.5 0.1
148 1 0.2 0.5 0.15
152 1 0.4 0.5 0.15
161 1 0 0.6 0.1
162 1 0.1 0.7 0.1
163 1 0.1 0.6 0.15
164 1 0 0.7 0.15
165 1 0.2 0.6 0.1
166 1 0.3 0.7 0.1
167 1 0.3 0.6 0.15
168 1 0.2 0.7 0.15
169 1 0.4 0.6 0.1
172 1 0.4 0.7 0.15
181 1 0 0.8 0.1
182 1 0.1 0.9 0.1
183 1 0.1 0.8 0.15
184 1 0 0.9 0.15
185 1 0.2 0.8 0.1
186 1 0.3 0.9 0.1
187 1 0.3 0.8 0.15
188 1 0.2 0.9 0.15
189 1 0.4 0.8 0.1
192 1 0.4 0.9 0.15
50 1 0.5 0.5 0
54 1 0.7 0.5 0
56 1 0.6 0.5 0.05
58 1 0.9 0.5 0
60 1 0.8 0.5 0.05
70 1 0.5 0.7 0
71 1 0.5 0.6 0.05
73 1 0.6 0.6 0
74 1 0.7 0.7 0
75 1 0.7 0.6 0.05
76 1 0.6 0.7 0.05
77 1 0.8 0.6 0
78 1 0.9 0.7 0
79 1 0.9 0.6 0.05
80 1 0.8 0.7 0.05
90 1 0.5 0.9 0
91 1 0.5 0.8 0.05
93 1 0.6 0.8 0
94 1 0.7 0.9 0
95 1 0.7 0.8 0.05
96 1 0.6 0.9 0.05
97 1 0.8 0.8 0
98 1 0.9 0.9 0
99 1 0.9 0.8 0.05
100 1 0.8 0.9 0.05
150 1 0.5 0.5 0.1
154 1 0.7 0.5 0.1
156 1 0.6 0.5 0.15
158 1 0.9 0.5 0.1
160 1 0.8 0.5 0.15
170 1 0.5 0.7 0.1
171 1 0.5 0.6 0.15
173 1 0.6 0.6 0.1
174 1 0.7 0.7 0.1
175 1 0.7 0.6 0.15
176 1 0.6 0.7 0.15
177 1 0.8 0.6 0.1
178 1 0.9 0.7 0.1
179 1 0.9 0.6 0.15
180 1 0.8 0.7 0.15
190 1 0.5 0.9 0.1
191 1 0.5 0.8 0.15
193 1 0.6 0.8 0.1
194 1 0.7 0.9 0.1
195 1 0.7 0.8 0.15
196 1 0.6 0.9 0.15
197 1 0.8 0.8 0.1
198 1 0.9 0.9 0.1
199 1 0.9 0.8 0.15
200 1 0.8 0.9 0.15
201 1 0 0 0.2
202 1 0.1 0.1 0.2
203 1 0.1 0 0.25
204 1 0 0.1 0.25
205 1 0.2 0 0.2
206 1 0.3 0.1 0.2
207 1 0.3 0 0.25
208 1 0.2 0.1 0.25
209 1 0.4 0 0.2
212 1 0.4 0.1 0.25
221 1 0 0.2 0.2
222 1 0.1 0.3 0.2
223 1 0.1 0.2 0.25
224 1 0 0.3 0.25
225 1 0.2 0.2 0.2
226 1 0.3 0.3 0.2
227 1 0.3 0.2 0.25
228 1 0.2 0.3 0.25
229 1 0.4 0.2 0.2
232 1 0.4 0.3 0.25
241 1 0 0.4 0.2
243 1 0.1 0.4 0.25
245 1 0.2 0.4 0.2
247 1 0.3 0.4 0.25
249 1 0.4 0.4 0.2
301 1 0 0 0.3
302 1 0.1 0.1 0.3
303 1 0.2 0 0.3
304 1 0.3 0.1 0.3
305 1 0.4 0 0.3
311 1 0 0.2 0.3
312 1 0.1 0.3 0.3
313 1 0.2 0.2 0.3
314 1 0.3 0.3 0.3
315 1 0.4 0.2 0.3
321 1 0 0.4 0.3
323 1 0.2 0.4 0.3
325 1 0.4 0.4 0.3
210 1 0.5 0.1 0.2
211 1 0.5 0 0.25
213 1 0.6 0 0.2
214 1 0.7 0.1 0.2
215 1 0.7 0 0.25
216 1 0.6 0.1 0.25
217 1 0.8 0 0.2
218 1 0.9 0.1 0.2
219 1 0.9 0 0.25
220 1 0.8 0.1 0.25
230 1 0.5 0.3 0.2
231 1 0.5 0.2 0.25
233 1 0.6 0.2 0.2
234 1 0.7 0.3 0.2
235 1 0.7 0.2 0.25
236 1 0.6 0.3 0.25
237 1 0.8 0.2 0.2
238 1 0.9 0.3 0.2
239 1 0.9 0.2 0.25
240 1 0.8 0.3 0.25
251 1 0.5 0.4 0.25
253 1 0.6 0.4 0.2
255 1 0.7 0.4 0.25
257 1 0.8 0.4 0.2
259 1 0.9 0.4 0.25
306 1 0.5 0.1 0.3
307 1 0.6 0 0.3
308 1 0.7 0.1 0.3
309 1 0.8 0 0.3
310 1 0.9 0.1 0.3
316 1 0.5 0.3 0.3
317 1 0.6 0.2 0.3
318 1 0.7 0.3 0.3
319 1 0.8 0.2 0.3
320 1 0.9 0.3 0.3
327 1 0.6 0.4 0.3
329 1 0.8 0.4 0.3
242 1 0.1 0.5 0.2
244 1 0 0.5 0.25
246 1 0.3 0.5 0.2
248 1 0.2 0.5 0.25
252 1 0.4 0.5 0.25
261 1 0 0.6 0.2
262 1 0.1 0.7 0.2
263 1 0.1 0.6 0.25
264 1 0 0.7 0.25
265 1 0.2 0.6 0.2
266 1 0.3 0.7 0.2
267 1 0.3 0.6 0.25
268 1 0.2 0.7 0.25
269 1 0.4 0.6 0.2
272 1 0.4 0.7 0.25
281 1 0 0.8 0.2
282 1 0.1 0.9 0.2
283 1 0.1 0.8 0.25
284 1 0 0.9 0.25
285 1 0.2 0.8 0.2
286 1 0.3 0.9 0.2
287 1 0.3 0.8 0.25
288 1 0.2 0.9 0.25
289 1 0.4 0.8 0.2
292 1 0.4 0.9 0.25
322 1 0.1 0.5 0.3
324 1 0.3 0.5 0.3
331 1 0 0.6 0.3
332 1 0.1 0.7 0.3
333 1 0.2 0.6 0.3
334 1 0.3 0.7 0.3
335 1 0.4 0.6 0.3
341 1 0 0.8 0.3
342 1 0.1 0.9 0.3
343 1 0.2 0.8 0.3
344 1 0.3 0.9 0.3
345 1 0.4 0.8 0.3
250 1 0.5 0.5 0.2
254 1 0.7 0.5 0.2
256 1 0.6 0.5 0.25
258 1 0.9 0.5 0.2
260 1 0.8 0.5 0.25
270 1 0.5 0.7 0.2
271 1 0.5 0.6 0.25
273 1 0.6 0.6 0.2
274 1 0.7 0.7 0.2
275 1 0.7 0.6 0.25
276 1 0.6 0.7 0.25
277 1 0.8 0.6 0.2
278 1 0.9 0.7 0.2
279 1 0.9 0.6 0.25
280 1 0.8 0.7 0.25
290 1 0.5 0.9 0.2
291 1 0.5 0.8 0.25
293 1 0.6 0.8 0.2
294 1 0.7 0.9 0.2
295 1 0.7 0.8 0.25
296 1 0.6 0.9 0.25
297 1 0.8 0.8 0.2
298 1 0.9 0.9 0.2
299 1 0.9 0.8 0.25
300 1 0.8 0.9 0.25
326 1 0.5 0.5 0.3
328 1 0.7 0.5 0.3
330 1 0.9 0.5 0.3
336 1 0.5 0.7 0.3
337 1 0.6 0.6 0.3
338 1 0.7 0.7 0.3
339 1 0.8 0.6 0.3
340 1 0.9 0.7 0.3
346 1 0.5 0.9 0.3
347 1 0.6 0.8 0.3
348 1 0.7 0.9 0.3
349 1 0.8 0.8 0.3
350 1 0.9 0.9 0.3
ITEM: TIMESTEP
50
ITEM: NUMBER OF ATOMS
352
ITEM: BOX BOUNDS pp pp ff
0 7.93701
0 7.93701
0 15.874
ITEM: ATOMS id type xs ys zs
1 1 0 0 0
2 1 0.1 0.1 0
3 1 0.1 0 0.05
4 1 0 0.1 0.05
5 1 0.2 0 0
6 1 0.3 0.1 0
7 1 0.3 0 0.05
8 1 0.2 0.1 0.05
9 1 0.4 0 0
12 1 0.4 0.1 0.05
21 1 0 0.2 0
22 1 0.1 0.3 0
23 1 0.1 0.2 0.05
24 1 0 0.3 0.05
25 1 0.2 0.2 0
26 1 0.3 0.3 0
27 1 0.3 0.2 0.05
28 1 0.2 0.3 0.05
29 1 0.4 0.2 0
32 1 0.4 0.3 0.05
41 1 0 0.4 0
43 1 0.1 0.4 0.05
45 1 0.2 0.4 0
47 1 0.3 0.4 0.05
49 1 0.4 0.4 0
101 1 0 0 0.1
102 1 0.1 0.1 0.1
103 1 0.1 0 0.15
104 1 0 0.1 0.15
105 1 0.2 0 0.1
106 1 0.3 0.1 0.1
107 1 0.3 0 0.15
108 1 0.2 0.1 0.15
109 1 0.4 0 0.1
112 1 0.4 0.1 0.15
121 1 0 0.2 0.1
122 1 0.1 0.3 0.1
123 1 0.1 0.2 0.15
124 1 0 0.3 0.15
125 1 0.2 0.2 0.1
126 1 0.3 0.3 0.1
127 1 0.3 0.2 0.15
128 1 0.2 0.3 0.15
129 1 0.4 0.2 0.1
132 1 0.4 0.3 0.15
141 1 0 0.4 0.1
143 1 0.1 0.4 0.15
145 1 0.2 0.4 0.1
147 1 0.3 0.4 0.15
149 1 0.4 0.4 0.1
10 1 0.5 0.1 0
11 1 0.5 0 0.05
13 1 0.6 0 0
14 1 0.7 0.1 0
15 1 0.7 0 0.05
16 1 0.6 0.1 0.05
17 1 0.8 0 0
18 1 0.9 0.1 0
19 1 0.9 0 0.05
20 1 0.8 0.1 0.05
30 1 0.5 0.3 0
31 1 0.5 0.2 0.05
33 1 0.6 0.2 0
34 1 0.7 0.3 0
35 1 0.7 0.2 0.05
36 1 0.6 0.3 0.05
37 1 0.8 0.2 0
38 1 0.9 0.3 0
39 1 0.9 0.2 0.05
40 1 0.8 0.3 0.05
51 1 0.5 0.4 0.05
53 1 0.6 0.4 0
55 1 0.7 0.4 0.05
57 1 0.8 0.4 0
59 1 0.9 0.4 0.05
110 1 0.5 0.1 0.1
111 1 0.5 0 0.15
113 1 0.6 0 0.1
114 1 0.7 0.1 0.1
115 1 0.7 0 0.15
116 1 0.6 0.1 0.15
117 1 0.8 0 0.1
118 1 0.9 0.1 0.1
119 1 0.9 0 0.15
120 1 0.8 0.1 0.15
130 1 0.5 0.3 0.1
131 1 0.5 0.2 0.15
133 1 0.6 0.2 0.1
134 1 0.7 0.3 0.1
135 1 0.7 0.2 0.15
136 1 0.6 0.3 0.15
137 1 0.8 0.2 0.1
138 1 0.9 0.3 0.1
139 1 0.9 0.2 0.15
140 1 0.8 0.3 0.15
151 1 0.5 0.4 0.15
153 1 0.6 0.4 0.1
155 1 0.7 0.4 0.15
157 1 0.8 0.4 0.1
159 1 0.9 0.4 0.15
42 1 0.1 0.5 0
44 1 0 0.5 0.05
46 1 0.3 0.5 0
48 1 0.2 0.5 0.05
52 1 0.4 0.5 0.05
61 1 0 0.6 0
62 1 0.1 0.7 0
63 1 0.1 0.6 0.05
64 1 0 0.7 0.05
65 1 0.2 0.6 0
66 1 0.3 0.7 0
67 1 0.3 0.6 0.05
68 1 0.2 0.7 0.05
69 1 0.4 0.6 0
72 1 0.4 0.7 0.05
81 1 0 0.8 0
82 1 0.1 0.9 0
83 1 0.1 0.8 0.05
84 1 0 0.9 0.05
85 1 0.2 0.8 0
86 1 0.3 0.9 0
87 1 0.3 0.8 0.05
88 1 0.2 0.9 0.05
89 1 0.4 0.8 0
92 1 0.4 0.9 0.05
142 1 0.1 0.5 0.1
144 1 0 0.5 0.15
146 1 0.3 0.5 0.1
148 1 0.2 0.5 0.15
152 1 0.4 0.5 0.15
161 1 0 0.6 0.1
162 1 0.1 0.7 0.1
163 1 0.1 0.6 0.15
164 1 0 0.7 0.15
165 1 0.2 0.6 0.1
166 1 0.3 0.7 0.1
167 1 0.3 0.6 0.15
168 1 0.2 0.7 0.15
169 1 0.4 0.6 0.1
172 1 0.4 0.7 0.15
181 1 0 0.8 0.1
182 1 0.1 0.9 0.1
183 1 0.1 0.8 0.15
184 1 0 0.9 0.15
185 1 0.2 0.8 0.1
186 1 0.3 0.9 0.1
187 1 0.3 0.8 0.15
188 1 0.2 0.9 0.15
189 1 0.4 0.8 0.1
192 1 0.4 0.9 0.15
50 1 0.5 0.5 0
54 1 0.7 0.5 0
56 1 0.6 0.5 0.05
58 1 0.9 0.5 0
60 1 0.8 0.5 0.05
70 1 0.5 0.7 0
71 1 0.5 0.6 0.05
73 1 0.6 0.6 0
74 1 0.7 0.7 0
75 1 0.7 0.6 0.05
76 1 0.6 0.7 0.05
77 1 0.8 0.6 0
78 1 0.9 0.7 0
79 1 0.9 0.6 0.05
80 1 0.8 0.7 0.05
90 1 0.5 0.9 0
91 1 0.5 0.8 0.05
93 1 0.6 0.8 0
94 1 0.7 0.9 0
95 1 0.7 0.8 0.05
96 1 0.6 0.9 0.05
97 1 0.8 0.8 0
98 1 0.9 0.9 0
99 1 0.9 0.8 0.05
100 1 0.8 0.9 0.05
150 1 0.5 0.5 0.1
154 1 0.7 0.5 0.1
156 1 0.6 0.5 0.15
158 1 0.9 0.5 0.1
160 1 0.8 0.5 0.15
170 1 0.5 0.7 0.1
171 1 0.5 0.6 0.15
173 1 0.6 0.6 0.1
174 1 0.7 0.7 0.1
175 1 0.7 0.6 0.15
176 1 0.6 0.7 0.15
177 1 0.8 0.6 0.1
178 1 0.9 0.7 0.1
179 1 0.9 0.6 0.15
180 1 0.8 0.7 0.15
190 1 0.5 0.9 0.1
191 1 0.5 0.8 0.15
193 1 0.6 0.8 0.1
194 1 0.7 0.9 0.1
195 1 0.7 0.8 0.15
196 1 0.6 0.9 0.15
197 1 0.8 0.8 0.1
198 1 0.9 0.9 0.1
199 1 0.9 0.8 0.15
200 1 0.8 0.9 0.15
201 1 0.00218017 0.00106899 0.197591
202 1 0.101179 0.0965572 0.200568
203 1 0.101591 0.999574 0.25056
204 1 0.00645571 0.0959705 0.250397
205 1 0.199619 0.00201629 0.200397
206 1 0.300981 0.0977753 0.197344
207 1 0.296185 0.00484889 0.248406
208 1 0.196603 0.101993 0.250253
209 1 0.398564 0.999798 0.19971
212 1 0.40247 0.101637 0.248409
221 1 -0.0017881 0.19596 0.198798
222 1 0.101998 0.297891 0.201
223 1 0.0958861 0.202153 0.247445
224 1 0.00306956 0.299784 0.248154
225 1 0.201949 0.195481 0.197007
226 1 0.298477 0.304145 0.200595
227 1 0.297341 0.203405 0.248296
228 1 0.200249 0.298816 0.246758
229 1 0.396596 0.199284 0.19942
232 1 0.398187 0.299177 0.248861
241 1 1.00086 0.39953 0.198457
243 1 0.0983464 0.40233 0.247674
245 1 0.194602 0.404135 0.197144
247 1 0.29274 0.404262 0.249208
249 1 0.403579 0.402052 0.19835
301 1 1.001 0.996307 0.298168
302 1 0.102827 0.1017 0.304092
303 1 0.198845 0.995187 0.299543
304 1 0.306295 0.106319 0.297123
305 1 0.400567 0.999301 0.30192
311 1 0.0019059 0.201607 0.300469
312 1 0.106608 0.302974 0.296144
313 1 0.198801 0.204112 0.296406
314 1 0.296021 0.302335 0.298397
315 1 0.397732 0.207719 0.299902
321 1 0.00314166 0.398137 0.298897
323 1 0.199629 0.401537 0.299183
325 1 0.400181 0.395072 0.299898
210 1 0.497674 0.100307 0.19948
211 1 0.496026 -0.000242144 0.248549
213 1 0.599456 1.00114 0.198253
214 1 0.700848 0.107097 0.199665
215 1 0.698808 0.0035899 0.248177
216 1 0.596412 0.0967057 0.248562
217 1 0.798327 0.0082804 0.199537
218 1 0.902609 0.10182 0.198556
219 1 0.906988 0.000811435 0.247651
220 1 0.799579 0.102536 0.246898
230 1 0.496301 0.29841 0.201293
231 1 0.492836 0.20215 0.249027
233 1 0.597819 0.203465 0.20178
234 1 0.69759 0.297617 0.19939
235 1 0.700496 0.202817 0.248809
236 1 0.599558 0.30346 0.249903
237 1 0.799682 0.206221 0.198892
238 1 0.902113 0.30343 0.198255
239 1 0.905271 0.200002 0.248817
240 1 0.8017 0.304679 0.247466
251 1 0.501804 0.406719 0.24902
253 1 0.599108 0.402861 0.199163
255 1 0.703098 0.398742 0.251313
257 1 0.799764 0.40063 0.19713
259 1 0.910992 0.400536 0.248813
306 1 0.504749 0.103849 0.296561
307 1 0.600669 0.994707 0.29653
308 1 0.696003 0.100112 0.298814
309 1 0.798761 0.00303069 0.297278
310 1 0.902582 0.0974499 0.296877
316 1 0.504341 0.30439 0.298438
317 1 0.600249 0.207914 0.297225
318 1 0.708176 0.297155 0.300559
319 1 0.798863 0.19237 0.29769
320 1 0.895355 0.299424 0.298015
327 1 0.605848 0.400369 0.299929
329 1 0.800611 0.404798 0.299714
242 1 0.0956521 0.506667 0.199083
244 1 0.999613 0.500929 0.24954
246 1 0.300287 0.500808 0.197816
248 1 0.194185 0.500825 0.248004
252 1 0.402124 0.499276 0.24901
261 1 0.997109 0.598249 0.200247
262 1 0.0997713 0.697909 0.200168
263 1 0.0986544 0.59655 0.249221
264 1 0.999619 0.699714 0.250938
265 1 0.200062 0.599563 0.200466
266 1 0.294559 0.697298 0.201621
267 1 0.302975 0.596861 0.250606
268 1 0.198888 0.698835 0.250365
269 1 0.398888 0.600605 0.20094
272 1 0.398368 0.697134 0.250879
281 1 0.00419638 0.79879 0.199163
282 1 0.101193 0.904285 0.199002
283 1 0.0997616 0.800126 0.245384
284 1 0.00462045 0.897123 0.247354
285 1 0.200426 0.801363 0.198438
286 1 0.296847 0.901655 0.197264
287 1 0.297473 0.803221 0.249047
288 1 0.200469 0.902959 0.248138
289 1 0.396959 0.795389 0.198662
292 1 0.394381 0.899445 0.248046
322 1 0.101414 0.497728 0.29985
324 1 0.303105 0.499762 0.298341
331 1 0.00568955 0.597095 0.3014
332 1 0.102315 0.703371 0.299293
333 1 0.205154 0.602427 0.297413
334 1 0.299345 0.698393 0.300683
335 1 0.395994 0.602887 0.300014
341 1 0.00660928 0.798053 0.29453
342 1 0.098811 0.898644 0.297994
343 1 0.202252 0.799822 0.297583
344 1 0.300751 0.90148 0.296931
345 1 0.395252 0.800354 0.29727
250 1 0.501749 0.50324 0.198876
254 1 0.698675 0.500516 0.201053
256 1 0.602713 0.500079 0.249551
258 1 0.897067 0.499394 0.198418
260 1 0.798086 0.495583 0.2497
270 1 0.500072 0.690449 0.200762
271 1 0.501131 0.603204 0.250285
273 1 0.601398 0.595416 0.200877
274 1 0.700957 0.696125 0.198648
275 1 0.701095 0.603261 0.248337
276 1 0.600186 0.694324 0.248182
277 1 0.804228 0.601828 0.199745
278 1 0.902498 0.702932 0.199448
279 1 0.899651 0.599018 0.248787
280 1 0.797244 0.700129 0.247569
290 1 0.495182 0.896268 0.198741
291 1 0.502689 0.794648 0.247981
293 1 0.595736 0.796357 0.199253
294 1 0.696253 0.903061 0.20042
295 1 0.70092 0.795635 0.246379
296 1 0.59782 0.899298 0.245087
297 1 0.798018 0.80322 0.199626
298 1 0.905999 0.904501 0.199236
299 1 0.899435 0.799596 0.247893
300 1 0.80285 0.904118 0.248681
326 1 0.495708 0.501045 0.301299
328 1 0.6956 0.502519 0.298043
330 1 0.901191 0.498165 0.298319
336 1 0.501156 0.704382 0.303742
337 1 0.598811 0.601345 0.298784
338 1 0.702955 0.698232 0.294968
339 1 0.798132 0.593994 0.297505
340 1 0.898364 0.697012 0.299119
346 1 0.494962 0.896492 0.296634
347 1 0.602098 0.79847 0.294532
348 1 0.705973 0.905219 0.299496
349 1 0.797883 0.797208 0.297448
350 1 0.903194 0.895676 0.296991
351 2 0.0960843 0.795584 0.895234
352 3 0.0971488 0.872405 0.845306
ITEM: TIMESTEP
100
ITEM: NUMBER OF ATOMS
352
ITEM: BOX BOUNDS pp pp ff
0 7.93701
0 7.93701
0 15.874
ITEM: ATOMS id type xs ys zs
1 1 0 0 0
2 1 0.1 0.1 0
3 1 0.1 0 0.05
4 1 0 0.1 0.05
5 1 0.2 0 0
6 1 0.3 0.1 0
7 1 0.3 0 0.05
8 1 0.2 0.1 0.05
9 1 0.4 0 0
12 1 0.4 0.1 0.05
21 1 0 0.2 0
22 1 0.1 0.3 0
23 1 0.1 0.2 0.05
24 1 0 0.3 0.05
25 1 0.2 0.2 0
26 1 0.3 0.3 0
27 1 0.3 0.2 0.05
28 1 0.2 0.3 0.05
29 1 0.4 0.2 0
32 1 0.4 0.3 0.05
41 1 0 0.4 0
43 1 0.1 0.4 0.05
45 1 0.2 0.4 0
47 1 0.3 0.4 0.05
49 1 0.4 0.4 0
101 1 0 0 0.1
102 1 0.1 0.1 0.1
103 1 0.1 0 0.15
104 1 0 0.1 0.15
105 1 0.2 0 0.1
106 1 0.3 0.1 0.1
107 1 0.3 0 0.15
108 1 0.2 0.1 0.15
109 1 0.4 0 0.1
112 1 0.4 0.1 0.15
121 1 0 0.2 0.1
122 1 0.1 0.3 0.1
123 1 0.1 0.2 0.15
124 1 0 0.3 0.15
125 1 0.2 0.2 0.1
126 1 0.3 0.3 0.1
127 1 0.3 0.2 0.15
128 1 0.2 0.3 0.15
129 1 0.4 0.2 0.1
132 1 0.4 0.3 0.15
141 1 0 0.4 0.1
143 1 0.1 0.4 0.15
145 1 0.2 0.4 0.1
147 1 0.3 0.4 0.15
149 1 0.4 0.4 0.1
10 1 0.5 0.1 0
11 1 0.5 0 0.05
13 1 0.6 0 0
14 1 0.7 0.1 0
15 1 0.7 0 0.05
16 1 0.6 0.1 0.05
17 1 0.8 0 0
18 1 0.9 0.1 0
19 1 0.9 0 0.05
20 1 0.8 0.1 0.05
30 1 0.5 0.3 0
31 1 0.5 0.2 0.05
33 1 0.6 0.2 0
34 1 0.7 0.3 0
35 1 0.7 0.2 0.05
36 1 0.6 0.3 0.05
37 1 0.8 0.2 0
38 1 0.9 0.3 0
39 1 0.9 0.2 0.05
40 1 0.8 0.3 0.05
51 1 0.5 0.4 0.05
53 1 0.6 0.4 0
55 1 0.7 0.4 0.05
57 1 0.8 0.4 0
59 1 0.9 0.4 0.05
110 1 0.5 0.1 0.1
111 1 0.5 0 0.15
113 1 0.6 0 0.1
114 1 0.7 0.1 0.1
115 1 0.7 0 0.15
116 1 0.6 0.1 0.15
117 1 0.8 0 0.1
118 1 0.9 0.1 0.1
119 1 0.9 0 0.15
120 1 0.8 0.1 0.15
130 1 0.5 0.3 0.1
131 1 0.5 0.2 0.15
133 1 0.6 0.2 0.1
134 1 0.7 0.3 0.1
135 1 0.7 0.2 0.15
136 1 0.6 0.3 0.15
137 1 0.8 0.2 0.1
138 1 0.9 0.3 0.1
139 1 0.9 0.2 0.15
140 1 0.8 0.3 0.15
151 1 0.5 0.4 0.15
153 1 0.6 0.4 0.1
155 1 0.7 0.4 0.15
157 1 0.8 0.4 0.1
159 1 0.9 0.4 0.15
42 1 0.1 0.5 0
44 1 0 0.5 0.05
46 1 0.3 0.5 0
48 1 0.2 0.5 0.05
52 1 0.4 0.5 0.05
61 1 0 0.6 0
62 1 0.1 0.7 0
63 1 0.1 0.6 0.05
64 1 0 0.7 0.05
65 1 0.2 0.6 0
66 1 0.3 0.7 0
67 1 0.3 0.6 0.05
68 1 0.2 0.7 0.05
69 1 0.4 0.6 0
72 1 0.4 0.7 0.05
81 1 0 0.8 0
82 1 0.1 0.9 0
83 1 0.1 0.8 0.05
84 1 0 0.9 0.05
85 1 0.2 0.8 0
86 1 0.3 0.9 0
87 1 0.3 0.8 0.05
88 1 0.2 0.9 0.05
89 1 0.4 0.8 0
92 1 0.4 0.9 0.05
142 1 0.1 0.5 0.1
144 1 0 0.5 0.15
146 1 0.3 0.5 0.1
148 1 0.2 0.5 0.15
152 1 0.4 0.5 0.15
161 1 0 0.6 0.1
162 1 0.1 0.7 0.1
163 1 0.1 0.6 0.15
164 1 0 0.7 0.15
165 1 0.2 0.6 0.1
166 1 0.3 0.7 0.1
167 1 0.3 0.6 0.15
168 1 0.2 0.7 0.15
169 1 0.4 0.6 0.1
172 1 0.4 0.7 0.15
181 1 0 0.8 0.1
182 1 0.1 0.9 0.1
183 1 0.1 0.8 0.15
184 1 0 0.9 0.15
185 1 0.2 0.8 0.1
186 1 0.3 0.9 0.1
187 1 0.3 0.8 0.15
188 1 0.2 0.9 0.15
189 1 0.4 0.8 0.1
192 1 0.4 0.9 0.15
50 1 0.5 0.5 0
54 1 0.7 0.5 0
56 1 0.6 0.5 0.05
58 1 0.9 0.5 0
60 1 0.8 0.5 0.05
70 1 0.5 0.7 0
71 1 0.5 0.6 0.05
73 1 0.6 0.6 0
74 1 0.7 0.7 0
75 1 0.7 0.6 0.05
76 1 0.6 0.7 0.05
77 1 0.8 0.6 0
78 1 0.9 0.7 0
79 1 0.9 0.6 0.05
80 1 0.8 0.7 0.05
90 1 0.5 0.9 0
91 1 0.5 0.8 0.05
93 1 0.6 0.8 0
94 1 0.7 0.9 0
95 1 0.7 0.8 0.05
96 1 0.6 0.9 0.05
97 1 0.8 0.8 0
98 1 0.9 0.9 0
99 1 0.9 0.8 0.05
100 1 0.8 0.9 0.05
150 1 0.5 0.5 0.1
154 1 0.7 0.5 0.1
156 1 0.6 0.5 0.15
158 1 0.9 0.5 0.1
160 1 0.8 0.5 0.15
170 1 0.5 0.7 0.1
171 1 0.5 0.6 0.15
173 1 0.6 0.6 0.1
174 1 0.7 0.7 0.1
175 1 0.7 0.6 0.15
176 1 0.6 0.7 0.15
177 1 0.8 0.6 0.1
178 1 0.9 0.7 0.1
179 1 0.9 0.6 0.15
180 1 0.8 0.7 0.15
190 1 0.5 0.9 0.1
191 1 0.5 0.8 0.15
193 1 0.6 0.8 0.1
194 1 0.7 0.9 0.1
195 1 0.7 0.8 0.15
196 1 0.6 0.9 0.15
197 1 0.8 0.8 0.1
198 1 0.9 0.9 0.1
199 1 0.9 0.8 0.15
200 1 0.8 0.9 0.15
201 1 0.000990162 0.00502801 0.200551
202 1 0.105416 0.103274 0.197296
203 1 0.0980543 0.00456938 0.246391
204 1 0.00360623 0.108376 0.247606
205 1 0.205302 0.00338307 0.199067
206 1 0.302192 0.102451 0.200707
207 1 0.305794 0.00224928 0.249332
208 1 0.200499 0.101363 0.24961
209 1 0.4007 0.998447 0.196949
212 1 0.405919 0.0998078 0.245441
221 1 0.00383705 0.2024 0.198876
222 1 0.0980925 0.299943 0.20087
223 1 0.103079 0.199586 0.248475
224 1 0.00102986 0.300792 0.246001
225 1 0.201095 0.20302 0.198051
226 1 0.295516 0.299864 0.1981
227 1 0.301208 0.201684 0.245639
228 1 0.200833 0.304714 0.244919
229 1 0.397978 0.203063 0.20048
232 1 0.400976 0.302007 0.245613
241 1 0.00284367 0.401354 0.199299
243 1 0.0987369 0.403955 0.248952
245 1 0.200509 0.401057 0.198698
247 1 0.298445 0.401902 0.24542
249 1 0.397723 0.397778 0.200561
301 1 1.00011 0.00069092 0.298227
302 1 0.0964323 0.10377 0.296999
303 1 0.202276 0.00576016 0.299688
304 1 0.305771 0.103614 0.297864
305 1 0.407714 0.00215517 0.301953
311 1 0.00680749 0.212054 0.300581
312 1 0.105501 0.302852 0.296462
313 1 0.202313 0.202785 0.296964
314 1 0.299758 0.305204 0.294675
315 1 0.402595 0.204348 0.298469
321 1 0.00127032 0.398787 0.296745
323 1 0.200812 0.405754 0.29667
325 1 0.398672 0.399256 0.295915
210 1 0.499096 0.100645 0.197203
211 1 0.500165 0.997631 0.24887
213 1 0.598513 0.000583352 0.198169
214 1 0.69999 0.099012 0.198176
215 1 0.698786 1.00007 0.24627
216 1 0.598433 0.10683 0.245975
217 1 0.798649 0.994841 0.198443
218 1 0.904718 0.104851 0.197995
219 1 0.903736 0.00365168 0.248396
220 1 0.804459 0.0992888 0.247348
230 1 0.500301 0.300557 0.198157
231 1 0.503623 0.203943 0.247527
233 1 0.602186 0.204466 0.196924
234 1 0.705502 0.300535 0.196548
235 1 0.698098 0.202335 0.245181
236 1 0.602886 0.304692 0.248031
237 1 0.797591 0.197754 0.196654
238 1 0.901328 0.301948 0.198275
239 1 0.903052 0.206283 0.247246
240 1 0.801444 0.297454 0.245909
251 1 0.499114 0.39735 0.250152
253 1 0.592837 0.400011 0.199441
255 1 0.700282 0.399147 0.248513
257 1 0.803175 0.398319 0.19838
259 1 0.895829 0.399932 0.249048
306 1 0.500066 0.108656 0.294804
307 1 0.59257 0.00724117 0.296191
308 1 0.695149 0.101502 0.295161
309 1 0.799085 0.005811 0.297702
310 1 0.905874 0.102126 0.296483
316 1 0.503957 0.303979 0.298067
317 1 0.60324 0.204859 0.295177
318 1 0.708831 0.303918 0.296801
319 1 0.796496 0.192792 0.296007
320 1 0.903831 0.297435 0.297057
327 1 0.606027 0.397981 0.298287
329 1 0.803691 0.406382 0.294
242 1 0.0995837 0.500788 0.198951
244 1 0.00121277 0.503901 0.248373
246 1 0.29929 0.499519 0.19948
248 1 0.204192 0.502369 0.249004
252 1 0.396063 0.497864 0.246045
261 1 0.000645202 0.596911 0.196311
262 1 0.103657 0.695896 0.19741
263 1 0.105503 0.600653 0.246578
264 1 0.0068299 0.698179 0.245152
265 1 0.19812 0.598028 0.198241
266 1 0.300709 0.697833 0.195587
267 1 0.298382 0.597014 0.247971
268 1 0.20211 0.699667 0.248144
269 1 0.401649 0.59801 0.19693
272 1 0.40379 0.696415 0.24468
281 1 1.00081 0.798027 0.201452
282 1 0.101719 0.895347 0.19927
283 1 0.103342 0.798225 0.244271
284 1 0.00112916 0.899712 0.245416
285 1 0.199317 0.795743 0.198453
286 1 0.294132 0.8969 0.200028
287 1 0.302661 0.791458 0.248176
288 1 0.199263 0.904934 0.249851
289 1 0.397726 0.800667 0.199627
292 1 0.394959 0.899535 0.244214
322 1 0.0923184 0.507235 0.300715
324 1 0.300119 0.497322 0.297834
331 1 0.998079 0.604186 0.296832
332 1 0.10293 0.704007 0.295734
333 1 0.205074 0.593707 0.297984
334 1 0.296578 0.700134 0.299683
335 1 0.401029 0.599447 0.296793
341 1 0.998974 0.802416 0.292631
342 1 0.0998753 0.904331 0.295272
343 1 0.203042 0.800819 0.296003
344 1 0.307223 0.89817 0.291428
345 1 0.399941 0.798371 0.294993
250 1 0.50107 0.500178 0.199815
254 1 0.70202 0.497222 0.197771
256 1 0.603291 0.498568 0.248899
258 1 0.90323 0.502905 0.197363
260 1 0.803839 0.504154 0.244192
270 1 0.500435 0.696102 0.197028
271 1 0.498693 0.598097 0.246858
273 1 0.605395 0.596676 0.200226
274 1 0.696092 0.701676 0.198946
275 1 0.703593 0.598606 0.246146
276 1 0.597552 0.699962 0.250696
277 1 0.799363 0.601468 0.196414
278 1 0.899167 0.692985 0.197616
279 1 0.90427 0.600114 0.245996
280 1 0.79928 0.697275 0.246602
290 1 0.503033 0.903898 0.197367
291 1 0.501736 0.800623 0.245321
293 1 0.597588 0.80015 0.197396
294 1 0.70174 0.899781 0.197812
295 1 0.702608 0.805236 0.245206
296 1 0.603322 0.899502 0.244883
297 1 0.800361 0.795222 0.197748
298 1 0.898812 0.898884 0.198788
299 1 0.904766 0.800162 0.24514
300 1 0.800027 0.899655 0.247674
326 1 0.502638 0.504619 0.297752
328 1 0.706976 0.503528 0.296767
330 1 0.902876 0.502861 0.296669
336 1 0.495288 0.698919 0.298721
337 1 0.596657 0.605265 0.296962
338 1 0.703038 0.700218 0.294881
339 1 0.801532 0.598476 0.296006
340 1 0.898566 0.703773 0.294669
346 1 0.495908 0.896134 0.294565
347 1 0.605719 0.800244 0.296842
348 1 0.698759 0.902016 0.290322
349 1 0.794504 0.796953 0.291177
350 1 0.898496 0.897772 0.29325
351 2 0.0960843 0.795584 0.870234
352 3 0.0971488 0.872405 0.820306
ITEM: TIMESTEP
150
ITEM: NUMBER OF ATOMS
354
ITEM: BOX BOUNDS pp pp ff
0 7.93701
0 7.93701
0 15.874
ITEM: ATOMS id type xs ys zs
1 1 0 0 0
2 1 0.1 0.1 0
3 1 0.1 0 0.05
4 1 0 0.1 0.05
5 1 0.2 0 0
6 1 0.3 0.1 0
7 1 0.3 0 0.05
8 1 0.2 0.1 0.05
9 1 0.4 0 0
12 1 0.4 0.1 0.05
21 1 0 0.2 0
22 1 0.1 0.3 0
23 1 0.1 0.2 0.05
24 1 0 0.3 0.05
25 1 0.2 0.2 0
26 1 0.3 0.3 0
27 1 0.3 0.2 0.05
28 1 0.2 0.3 0.05
29 1 0.4 0.2 0
32 1 0.4 0.3 0.05
41 1 0 0.4 0
43 1 0.1 0.4 0.05
45 1 0.2 0.4 0
47 1 0.3 0.4 0.05
49 1 0.4 0.4 0
101 1 0 0 0.1
102 1 0.1 0.1 0.1
103 1 0.1 0 0.15
104 1 0 0.1 0.15
105 1 0.2 0 0.1
106 1 0.3 0.1 0.1
107 1 0.3 0 0.15
108 1 0.2 0.1 0.15
109 1 0.4 0 0.1
112 1 0.4 0.1 0.15
121 1 0 0.2 0.1
122 1 0.1 0.3 0.1
123 1 0.1 0.2 0.15
124 1 0 0.3 0.15
125 1 0.2 0.2 0.1
126 1 0.3 0.3 0.1
127 1 0.3 0.2 0.15
128 1 0.2 0.3 0.15
129 1 0.4 0.2 0.1
132 1 0.4 0.3 0.15
141 1 0 0.4 0.1
143 1 0.1 0.4 0.15
145 1 0.2 0.4 0.1
147 1 0.3 0.4 0.15
149 1 0.4 0.4 0.1
10 1 0.5 0.1 0
11 1 0.5 0 0.05
13 1 0.6 0 0
14 1 0.7 0.1 0
15 1 0.7 0 0.05
16 1 0.6 0.1 0.05
17 1 0.8 0 0
18 1 0.9 0.1 0
19 1 0.9 0 0.05
20 1 0.8 0.1 0.05
30 1 0.5 0.3 0
31 1 0.5 0.2 0.05
33 1 0.6 0.2 0
34 1 0.7 0.3 0
35 1 0.7 0.2 0.05
36 1 0.6 0.3 0.05
37 1 0.8 0.2 0
38 1 0.9 0.3 0
39 1 0.9 0.2 0.05
40 1 0.8 0.3 0.05
51 1 0.5 0.4 0.05
53 1 0.6 0.4 0
55 1 0.7 0.4 0.05
57 1 0.8 0.4 0
59 1 0.9 0.4 0.05
110 1 0.5 0.1 0.1
111 1 0.5 0 0.15
113 1 0.6 0 0.1
114 1 0.7 0.1 0.1
115 1 0.7 0 0.15
116 1 0.6 0.1 0.15
117 1 0.8 0 0.1
118 1 0.9 0.1 0.1
119 1 0.9 0 0.15
120 1 0.8 0.1 0.15
130 1 0.5 0.3 0.1
131 1 0.5 0.2 0.15
133 1 0.6 0.2 0.1
134 1 0.7 0.3 0.1
135 1 0.7 0.2 0.15
136 1 0.6 0.3 0.15
137 1 0.8 0.2 0.1
138 1 0.9 0.3 0.1
139 1 0.9 0.2 0.15
140 1 0.8 0.3 0.15
151 1 0.5 0.4 0.15
153 1 0.6 0.4 0.1
155 1 0.7 0.4 0.15
157 1 0.8 0.4 0.1
159 1 0.9 0.4 0.15
42 1 0.1 0.5 0
44 1 0 0.5 0.05
46 1 0.3 0.5 0
48 1 0.2 0.5 0.05
52 1 0.4 0.5 0.05
61 1 0 0.6 0
62 1 0.1 0.7 0
63 1 0.1 0.6 0.05
64 1 0 0.7 0.05
65 1 0.2 0.6 0
66 1 0.3 0.7 0
67 1 0.3 0.6 0.05
68 1 0.2 0.7 0.05
69 1 0.4 0.6 0
72 1 0.4 0.7 0.05
81 1 0 0.8 0
82 1 0.1 0.9 0
83 1 0.1 0.8 0.05
84 1 0 0.9 0.05
85 1 0.2 0.8 0
86 1 0.3 0.9 0
87 1 0.3 0.8 0.05
88 1 0.2 0.9 0.05
89 1 0.4 0.8 0
92 1 0.4 0.9 0.05
142 1 0.1 0.5 0.1
144 1 0 0.5 0.15
146 1 0.3 0.5 0.1
148 1 0.2 0.5 0.15
152 1 0.4 0.5 0.15
161 1 0 0.6 0.1
162 1 0.1 0.7 0.1
163 1 0.1 0.6 0.15
164 1 0 0.7 0.15
165 1 0.2 0.6 0.1
166 1 0.3 0.7 0.1
167 1 0.3 0.6 0.15
168 1 0.2 0.7 0.15
169 1 0.4 0.6 0.1
172 1 0.4 0.7 0.15
181 1 0 0.8 0.1
182 1 0.1 0.9 0.1
183 1 0.1 0.8 0.15
184 1 0 0.9 0.15
185 1 0.2 0.8 0.1
186 1 0.3 0.9 0.1
187 1 0.3 0.8 0.15
188 1 0.2 0.9 0.15
189 1 0.4 0.8 0.1
192 1 0.4 0.9 0.15
50 1 0.5 0.5 0
54 1 0.7 0.5 0
56 1 0.6 0.5 0.05
58 1 0.9 0.5 0
60 1 0.8 0.5 0.05
70 1 0.5 0.7 0
71 1 0.5 0.6 0.05
73 1 0.6 0.6 0
74 1 0.7 0.7 0
75 1 0.7 0.6 0.05
76 1 0.6 0.7 0.05
77 1 0.8 0.6 0
78 1 0.9 0.7 0
79 1 0.9 0.6 0.05
80 1 0.8 0.7 0.05
90 1 0.5 0.9 0
91 1 0.5 0.8 0.05
93 1 0.6 0.8 0
94 1 0.7 0.9 0
95 1 0.7 0.8 0.05
96 1 0.6 0.9 0.05
97 1 0.8 0.8 0
98 1 0.9 0.9 0
99 1 0.9 0.8 0.05
100 1 0.8 0.9 0.05
150 1 0.5 0.5 0.1
154 1 0.7 0.5 0.1
156 1 0.6 0.5 0.15
158 1 0.9 0.5 0.1
160 1 0.8 0.5 0.15
170 1 0.5 0.7 0.1
171 1 0.5 0.6 0.15
173 1 0.6 0.6 0.1
174 1 0.7 0.7 0.1
175 1 0.7 0.6 0.15
176 1 0.6 0.7 0.15
177 1 0.8 0.6 0.1
178 1 0.9 0.7 0.1
179 1 0.9 0.6 0.15
180 1 0.8 0.7 0.15
190 1 0.5 0.9 0.1
191 1 0.5 0.8 0.15
193 1 0.6 0.8 0.1
194 1 0.7 0.9 0.1
195 1 0.7 0.8 0.15
196 1 0.6 0.9 0.15
197 1 0.8 0.8 0.1
198 1 0.9 0.9 0.1
199 1 0.9 0.8 0.15
200 1 0.8 0.9 0.15
201 1 0.00174907 -0.00143324 0.198935
202 1 0.102796 0.100978 0.19933
203 1 0.101772 0.00640998 0.245416
204 1 0.00330845 0.0987086 0.243472
205 1 0.204916 0.996744 0.199246
206 1 0.300796 0.102246 0.198649
207 1 0.306625 0.00214237 0.247862
208 1 0.201278 0.102418 0.248112
209 1 0.401344 0.997236 0.1988
212 1 0.404343 0.104027 0.249399
221 1 0.00131804 0.202343 0.197347
222 1 0.100282 0.301979 0.197172
223 1 0.107859 0.202868 0.247483
224 1 0.0139616 0.303309 0.249666
225 1 0.198984 0.199219 0.195603
226 1 0.301529 0.299926 0.198527
227 1 0.298965 0.200555 0.243137
228 1 0.197914 0.302841 0.245547
229 1 0.399366 0.20137 0.196179
232 1 0.40356 0.300983 0.248254
241 1 0.00460258 0.402702 0.199131
243 1 0.107337 0.408004 0.246211
245 1 0.202798 0.401124 0.198056
247 1 0.30552 0.397751 0.247745
249 1 0.402661 0.401162 0.200241
301 1 0.00160702 0.00756762 0.292974
302 1 0.103863 0.103021 0.29582
303 1 0.209947 1.00089 0.297563
304 1 0.308935 0.104331 0.298184
305 1 0.405443 0.00238335 0.295582
311 1 0.00653478 0.200104 0.295507
312 1 0.105388 0.301328 0.298777
313 1 0.205348 0.202473 0.297138
314 1 0.298289 0.297489 0.298042
315 1 0.405608 0.208385 0.29617
321 1 0.00464438 0.40099 0.296582
323 1 0.201639 0.401813 0.297244
325 1 0.402366 0.400085 0.297606
210 1 0.502513 0.0997818 0.198074
211 1 0.502734 0.0021861 0.247028
213 1 0.596947 0.000681524 0.197942
214 1 0.703498 0.0951073 0.197142
215 1 0.699803 0.995625 0.245523
216 1 0.601936 0.101396 0.245587
217 1 0.805341 0.00224968 0.198256
218 1 0.900737 0.0978669 0.198909
219 1 0.903032 0.00546574 0.246606
220 1 0.796639 0.104 0.245765
230 1 0.494482 0.298578 0.198311
231 1 0.498777 0.202217 0.245837
233 1 0.604309 0.205054 0.197753
234 1 0.702928 0.302618 0.197821
235 1 0.696392 0.202959 0.2477
236 1 0.598036 0.300772 0.244677
237 1 0.801125 0.198364 0.197267
238 1 0.90113 0.300246 0.196534
239 1 0.903158 0.199812 0.242703
240 1 0.802955 0.297612 0.24611
251 1 0.501803 0.398414 0.247883
253 1 0.597937 0.399548 0.197326
255 1 0.698011 0.401402 0.247646
257 1 0.803803 0.401007 0.19959
259 1 0.902444 0.394187 0.245241
306 1 0.506166 0.103249 0.294638
307 1 0.602021 0.991467 0.298499
308 1 0.7031 0.0984361 0.296676
309 1 0.801757 0.00683553 0.293857
310 1 0.904644 0.107759 0.291567
316 1 0.503086 0.300833 0.29709
317 1 0.602205 0.205151 0.293758
318 1 0.703293 0.306203 0.297604
319 1 0.802479 0.197958 0.290242
320 1 0.897846 0.296287 0.296208
327 1 0.603629 0.400987 0.297233
329 1 0.803398 0.40143 0.293741
242 1 0.105719 0.505271 0.197453
244 1 0.0026637 0.501693 0.24496
246 1 0.303395 0.501027 0.199287
248 1 0.200896 0.508089 0.246333
252 1 0.404325 0.501005 0.248644
261 1 -0.000532833 0.599038 0.197758
262 1 0.101235 0.699111 0.199246
263 1 0.101847 0.600766 0.24445
264 1 0.997753 0.696258 0.245673
265 1 0.202273 0.600481 0.196295
266 1 0.3002 0.698511 0.198238
267 1 0.298744 0.598724 0.246317
268 1 0.195987 0.692885 0.247026
269 1 0.402303 0.598296 0.19919
272 1 0.398111 0.700262 0.24553
281 1 -0.000418647 0.80025 0.199055
282 1 0.10029 0.899861 0.201519
283 1 0.104991 0.792398 0.245477